/*--------------------------------*- C++ -*----------------------------------*\
| =========                 |                                                 |
| \\      /  F ield         | OpenFOAM: The Open Source CFD Toolbox           |
|  \\    /   O peration     | Version:  v1712                                 |
|   \\  /    A nd           | Web:      www.OpenFOAM.com                      |
|    \\/     M anipulation  |                                                 |
\*---------------------------------------------------------------------------*/
FoamFile
{
    version     2.0;
    format      ascii;
    class       volScalarField;
    location    "0";
    object      yPlus;
}
// * * * * * * * * * * * * * * * * * * * * * * * * * * * * * * * * * * * * * //

dimensions      [0 0 0 0 0 0 0];


internalField   uniform 0;

boundaryField
{
    velocity_inlet
    {
        type            calculated;
        value           uniform 0;
    }
    bottom_1
    {
        type            cyclicAMI;
        value           uniform 0;
    }
    top_1
    {
        type            cyclicAMI;
        value           uniform 0;
    }
    pressure_outlet
    {
        type            calculated;
        value           uniform 0;
    }
    wall_top
    {
        type            calculated;
        value           nonuniform List<scalar> 
670
(
3.87651
3.87333
3.8689
3.9022
3.87499
3.90382
3.87535
3.88503
3.87525
3.89833
3.89324
3.87276
3.85752
3.86792
3.87884
3.87509
3.87576
3.9034
3.86665
3.87658
3.87624
3.90315
3.90145
3.90268
3.87603
3.87597
3.90361
3.87562
3.87456
3.87293
3.86979
3.87647
3.87644
3.87492
3.90424
3.87322
3.8762
3.8766
3.87081
3.87782
3.87344
3.87293
3.90244
3.87316
3.90221
3.90174
3.87553
3.87529
3.8833
3.87195
3.8747
3.87784
3.90437
3.90359
3.8764
3.87342
3.8734
3.87656
3.87494
3.87483
3.87583
3.8732
3.87527
3.87494
3.87541
3.87498
3.87716
3.87897
3.87749
3.87773
3.79343
3.86529
3.88794
3.89367
3.89816
3.87547
3.90294
3.89861
3.90164
3.90444
3.89831
3.90141
3.88755
3.87442
3.88198
3.88686
3.88742
3.88906
3.8976
3.89821
3.9008
3.9045
3.9045
3.90415
3.90367
3.90206
3.82112
3.87279
3.87279
3.87355
3.87327
3.87283
3.87254
3.8724
3.87237
3.87246
3.87263
3.87283
3.87307
3.87336
3.87374
3.8742
3.8745
3.87428
3.87412
3.87402
3.87399
3.87403
3.87413
3.87427
3.8749
3.87489
3.87833
3.87867
3.87888
3.87898
3.87855
3.87811
3.87737
3.87735
3.87741
3.87755
3.87778
3.8781
3.87842
3.87868
3.87888
3.87904
3.87916
3.87925
3.87931
3.87935
3.87939
3.87944
3.87951
3.87958
3.87966
3.87974
3.87982
3.87991
3.87999
3.88008
3.88017
3.88026
3.88036
3.88045
3.88055
3.88064
3.88074
3.88084
3.88094
3.88104
3.88115
3.88125
3.88136
3.88146
3.88155
3.88164
3.88173
3.88181
3.8819
3.88208
3.88218
3.88229
3.8824
3.88252
3.88263
3.88273
3.88283
3.88293
3.88302
3.88311
3.8832
3.8834
3.8835
3.8836
3.88371
3.88381
3.88392
3.88402
3.88413
3.88423
3.88434
3.88444
3.88455
3.88465
3.88475
3.88486
3.88496
3.88507
3.88518
3.88529
3.8854
3.88551
3.88562
3.88571
3.88581
3.88591
3.88601
3.88613
3.88627
3.88642
3.88657
3.88669
3.88679
3.88691
3.88697
3.88704
3.88715
3.88727
3.88768
3.8878
3.88792
3.88803
3.88814
3.88826
3.88837
3.88849
3.8886
3.88871
3.88882
3.88893
3.88919
3.88935
3.88951
3.88964
3.88974
3.88979
3.8898
3.88983
3.88992
3.89006
3.89023
3.89039
3.89052
3.89064
3.89075
3.89088
3.89104
3.89124
3.89143
3.89155
3.89161
3.89159
3.8916
3.89167
3.89179
3.89194
3.89209
3.89222
3.89235
3.89249
3.89269
3.89293
3.89316
3.89327
3.89311
3.89307
3.89318
3.89344
3.8937
3.89385
3.8939
3.89395
3.8941
3.89435
3.89462
3.89474
3.8947
3.8946
3.89461
3.89478
3.89504
3.89528
3.89549
3.89564
3.8957
3.89564
3.89556
3.89561
3.8958
3.89607
3.89634
3.8966
3.89675
3.89671
3.89653
3.89647
3.89663
3.89694
3.89723
3.89747
3.89758
3.89743
3.8974
3.89758
3.89787
3.89813
3.89841
3.89833
3.89888
3.89903
3.89907
3.89905
3.899
3.89911
3.8994
3.89965
3.89971
3.89967
3.89966
3.89971
3.89993
3.90027
3.90044
3.9003
3.90014
3.90026
3.90054
3.90098
3.90094
3.90076
3.90081
3.90113
3.90136
3.9014
3.90138
3.90135
3.90147
3.90176
3.90192
3.90181
3.90187
3.9021
3.90232
3.90237
3.90221
3.90247
3.90265
3.90267
3.90264
3.90265
3.90283
3.90306
3.90305
3.90292
3.90297
3.90331
3.9034
3.90334
3.90326
3.90337
3.90356
3.90362
3.90361
3.90359
3.90372
3.90387
3.9039
3.90382
3.9038
3.90388
3.90398
3.90409
3.90413
3.90407
3.90401
3.90406
3.90417
3.90427
3.90426
3.90424
3.90424
3.9043
3.90439
3.90439
3.90439
3.90439
3.9044
3.90448
3.9045
3.9045
3.90451
3.90453
3.90456
3.90457
3.90458
3.90457
3.90457
3.90457
3.90458
3.90459
3.9046
3.9046
3.9046
3.9046
3.90461
3.90461
3.90461
3.9046
3.9046
3.90459
3.90459
3.90458
3.90458
3.90458
3.90458
3.90457
3.90457
3.90456
3.90455
3.90453
3.90451
3.9045
3.90449
3.9045
3.90451
3.90451
3.90449
3.90447
3.90445
3.90443
3.90441
3.90439
3.90438
3.90437
3.90437
3.90436
3.90435
3.90434
3.90433
3.90431
3.90429
3.90427
3.90424
3.90422
3.9042
3.90418
3.90416
3.90414
3.90412
3.90411
3.9041
3.90409
3.90407
3.90404
3.90401
3.90399
3.90397
3.90395
3.90393
3.9039
3.90388
3.90385
3.90382
3.90379
3.90377
3.90376
3.90375
3.90374
3.90372
3.9037
3.90365
3.90362
3.90356
3.90353
3.90351
3.90348
3.90346
3.90344
3.90342
3.90339
3.90337
3.90334
3.90331
3.90329
3.90326
3.90323
3.90321
3.90318
3.90316
3.90313
3.90311
3.90308
3.90305
3.90303
3.903
3.90297
3.90294
3.90292
3.90289
3.90286
3.90284
3.90282
3.90279
3.90276
3.90274
3.90271
3.90265
3.90262
3.90259
3.90256
3.90254
3.90251
3.90248
3.90246
3.90243
3.9024
3.90237
3.90234
3.90231
3.90228
3.90226
3.90223
3.90217
3.90215
3.90212
3.90209
3.90203
3.902
3.90197
3.90194
3.90192
3.90189
3.90186
3.90184
3.90181
3.90178
3.90175
3.90173
3.9017
3.90167
3.90162
3.90159
3.90156
3.90153
3.9015
3.90147
3.90144
3.90139
3.90136
3.90133
3.90131
3.90128
3.90125
3.90122
3.9012
3.90117
3.90114
3.90111
3.90108
3.90105
3.90102
3.90099
3.90097
3.90094
3.90092
3.90089
3.90087
3.90084
3.90081
3.90079
3.90076
3.90073
3.90071
3.90068
3.90065
3.90063
3.9006
3.90058
3.90055
3.90052
3.90049
3.90046
3.90043
3.9004
3.90038
3.90035
3.90033
3.9003
3.90028
3.90025
3.90023
3.90021
3.90019
3.90017
3.90014
3.90012
3.90009
3.90006
3.90003
3.89999
3.89995
3.89992
3.89989
3.89986
3.89984
3.89982
3.8998
3.89979
3.89979
3.89979
3.89981
3.89981
3.8998
3.89979
3.89977
3.89974
3.8997
3.89964
3.89957
3.89946
3.89931
3.89917
3.89906
3.89899
3.89894
3.8989
3.89889
3.89891
3.89898
3.89911
3.89932
3.89965
3.90001
3.90026
3.9004
3.90047
3.90048
3.90044
3.90033
3.90013
3.89977
3.89912
3.89795
3.89589
3.89276
3.88983
3.88754
3.88585
3.88471
3.88403
3.88372
3.88363
3.88342
3.88263
3.88162
3.88093
3.88112
3.88263
3.88571
3.8895
3.89265
3.89577
3.89936
3.90322
3.90548
3.90626
3.85168
3.88581
)
;
    }
    wall_bottom
    {
        type            calculated;
        value           nonuniform List<scalar> 
553
(
3.89827
3.89887
3.89228
3.887
3.87555
3.9035
3.90459
3.88224
3.88942
3.90471
3.9047
3.9038
3.90445
3.90464
3.86707
3.90469
3.8933
3.90434
3.86824
3.90469
3.87304
3.87868
3.86782
3.90208
3.90271
3.9014
3.90431
3.90453
3.8719
3.85343
3.87001
3.90441
3.90461
3.8664
3.90183
3.89335
3.89248
3.89945
3.8986
3.88841
3.88933
3.90414
3.8745
3.8686
3.87054
3.90309
3.87408
3.90357
3.90221
3.87462
3.90245
3.89996
3.90095
3.88331
3.87723
3.90463
3.90488
3.90293
3.90048
3.89696
3.8798
3.9049
3.90346
3.90469
3.90457
3.86785
3.89067
3.90439
3.9047
3.90454
3.90436
3.90453
3.8718
3.86935
3.86543
3.86739
3.88577
3.89731
3.89047
3.89766
3.90451
3.90261
3.89937
3.90307
3.90314
3.8765
3.88256
3.87689
3.86847
3.86997
3.86721
3.87169
3.90448
3.90419
3.88341
3.90471
3.90392
3.8886
3.89994
3.90348
3.90178
3.90355
3.87249
3.87761
3.90044
3.9045
3.90426
3.90044
3.90452
3.9043
3.89057
3.89997
3.89343
3.9019
3.89827
3.90449
3.90423
3.90444
3.9041
3.87676
3.87638
3.90342
3.90331
3.90141
3.90462
3.90424
3.88607
3.90387
3.86995
3.89148
3.87115
3.87567
3.8713
3.89784
3.9039
3.90274
3.90395
3.90286
3.90316
3.90327
3.87131
3.88505
3.86769
3.90257
3.89945
3.9046
3.90437
3.90458
3.88949
3.89639
3.87663
3.87626
3.90462
3.90462
3.90466
3.90431
3.90379
3.87521
3.87107
3.90459
3.9035
3.89598
3.88832
3.88174
3.90275
3.88699
3.87813
3.87315
3.87712
3.90438
3.90107
3.90366
3.90227
3.90374
3.90346
3.90171
3.89042
3.88378
3.8821
3.90092
3.89573
3.89503
3.88724
3.89438
3.88707
3.89757
3.90433
3.90383
3.86897
3.86957
3.90468
3.90308
3.90466
3.90447
3.90456
3.9044
3.90478
3.90461
3.90459
3.90454
3.90439
3.90441
3.90452
3.9045
3.90447
3.90448
3.90446
3.90458
3.90443
3.90442
3.90455
3.90437
3.90445
3.90411
3.90433
3.90382
3.90352
3.90359
3.90336
3.90319
3.90298
3.9016
3.90258
3.90043
3.89491
3.90195
3.90188
3.89814
3.90147
3.89705
3.89106
3.89634
3.88897
3.89397
3.89058
3.8835
3.87929
3.88197
3.87797
3.87428
3.87008
3.87348
3.86967
3.8728
3.86905
3.87221
3.86866
3.90445
3.8684
3.90345
3.879
3.90444
3.90409
3.88687
3.88417
3.9046
3.90447
3.89243
3.88544
3.90469
3.90456
3.90471
3.90455
3.87259
3.86889
3.89723
3.86789
3.86575
3.8857
3.87957
3.87591
3.87142
3.86775
3.87544
3.90304
3.90055
3.88003
3.87474
3.89203
3.86947
3.86559
3.86854
3.90359
3.87239
3.86876
3.89174
3.90412
3.89838
3.86773
3.87587
3.9047
3.90469
3.90467
3.90479
3.90458
3.90455
3.90451
3.90459
3.90457
3.90442
3.90455
3.90453
3.90432
3.9045
3.90449
3.90423
3.90422
3.90448
3.9042
3.90446
3.90415
3.90443
3.90408
3.90438
3.90393
3.90428
3.90368
3.90435
3.90386
3.90371
3.90425
3.90361
3.90417
3.90344
3.89254
3.88567
3.88809
3.88135
3.89977
3.89323
3.89497
3.88751
3.88995
3.88304
3.90377
3.90232
3.8964
3.88949
3.89826
3.89155
3.90226
3.8989
3.88443
3.9034
3.9014
3.90092
3.8957
3.90123
3.90227
3.89881
3.90139
3.89669
3.90079
3.89539
3.89568
3.9002
3.89411
3.89924
3.89768
3.89049
3.8942
3.88697
3.89235
3.89308
3.89147
3.88413
3.89174
3.88948
3.88277
3.88835
3.88781
3.88109
3.88655
3.87991
3.88572
3.88558
3.87913
3.88473
3.88424
3.87837
3.88392
3.87614
3.87159
3.87898
3.87388
3.87826
3.87326
3.88181
3.87532
3.87509
3.87486
3.87943
3.87418
3.87883
3.87378
3.87857
3.87778
3.87269
3.87602
3.87579
3.86992
3.8669
3.86764
3.87643
3.87439
3.87358
3.87292
3.86914
3.8723
3.86871
3.8715
3.87135
3.86756
3.8704
3.87017
3.86746
3.86988
3.86668
3.86975
3.86614
3.86833
3.86816
3.90339
3.86798
3.8676
3.86507
3.90439
3.90342
3.88049
3.90126
3.88284
3.89533
3.90137
3.90365
3.88276
3.9044
3.90491
3.90483
3.90476
3.90474
3.90472
3.9047
3.9047
3.90469
3.90469
3.90469
3.90471
3.9047
3.90465
3.90464
3.90469
3.90463
3.90461
3.90461
3.9046
3.90458
3.90457
3.90456
3.90456
3.90454
3.90452
3.90451
3.90449
3.90429
3.90421
3.90416
3.90412
3.90407
3.90406
3.90404
3.90427
3.90402
3.90401
3.90399
3.90398
3.90396
3.90388
3.90385
3.90363
3.90323
3.90311
3.90301
3.90279
3.90264
3.90257
3.90227
3.90186
3.90134
3.90093
3.89991
3.89943
3.89886
3.89704
3.89485
3.89412
3.89142
3.88827
3.88502
3.88405
3.88365
3.88244
3.88236
3.88187
3.88526
3.88159
3.88087
3.88071
3.88058
3.88044
3.8803
3.88016
3.87969
3.87869
3.87846
3.87746
3.87733
3.87701
3.87498
3.87398
3.87368
3.87337
3.87211
3.87201
3.87126
3.87121
3.87097
3.87085
3.8707
3.87027
3.86982
3.86924
3.86806
3.86757
3.86756
3.86882
3.86751
3.86731
3.86593
3.9045
3.90446
3.90422
3.86754
3.90404
3.90372
3.90341
3.90333
3.86972
3.8606
3.86636
3.8724
3.88288
3.89208
3.91054
)
;
    }
    frontAndBackPlanes
    {
        type            empty;
    }
}


// ************************************************************************* //
