/*--------------------------------*- C++ -*----------------------------------*\
  =========                 |
  \\      /  F ield         | OpenFOAM: The Open Source CFD Toolbox
   \\    /   O peration     | Website:  https://openfoam.org
    \\  /    A nd           | Version:  6
     \\/     M anipulation  |
\*---------------------------------------------------------------------------*/
FoamFile
{
    version     2.0;
    format      ascii;
    class       volScalarField;
    location    "0";
    object      yPlus;
}
// * * * * * * * * * * * * * * * * * * * * * * * * * * * * * * * * * * * * * //

dimensions      [0 0 0 0 0 0 0];

internalField   uniform 0;

boundaryField
{
    BA
    {
        type            calculated;
        value           uniform 0;
    }
    DC
    {
        type            calculated;
        value           uniform 0;
    }
    CB
    {
        type            calculated;
        value           uniform 0;
    }
    AD
    {
        type            calculated;
        value           nonuniform List<scalar> 
200
(
154.302367
154.5987091
154.8979232
155.2000325
155.5050606
155.813031
156.1239674
156.4378937
156.7548337
157.0748115
157.3978514
157.7239776
158.0532146
158.3855868
158.721119
159.0598359
159.4017625
159.7469237
160.0953447
160.4470508
160.8020672
161.1604197
161.5221336
161.8872348
162.2557492
162.6277026
163.0031213
163.3820313
163.764459
164.1504308
164.5399733
164.9331132
165.3298772
165.7302922
166.1343853
166.5421836
166.9537143
167.3690047
167.7880825
168.2109751
168.6377103
169.0683158
169.5028197
169.94125
170.3836347
170.8300023
171.280381
171.7347995
172.1932862
172.65587
173.1225796
173.5934441
174.0684925
174.547754
175.0312578
175.5190334
176.0111103
176.5075181
177.0082866
177.5134456
178.0230251
178.5370552
179.055566
179.578588
180.1061514
180.6382868
181.1750249
181.7163963
182.2624321
182.8131632
183.3686206
183.9288356
184.4938394
185.0636637
185.6383397
186.2178994
186.8023743
187.3917965
187.9861978
188.5856105
189.1900668
189.799599
190.4142396
191.0340212
191.6589765
192.2891382
192.9245394
193.565213
194.2111923
194.8625106
195.5192012
196.1812977
196.8488337
197.521843
198.2003594
198.8844171
199.5740501
200.2692926
200.9701791
201.6767441
202.3890222
203.1070481
203.8308567
204.5604831
205.2959623
206.0373296
206.7846205
207.5378703
208.2971149
209.0623899
209.8337313
210.6111752
211.3947576
212.184515
212.9804837
213.7827005
214.5912019
215.4060249
216.2272064
217.0547837
217.888794
218.7292747
219.5762635
220.4297979
221.289916
222.1566558
223.0300552
223.9101529
224.796987
225.6905964
226.5910197
227.4982959
228.412464
229.3335634
230.2616334
231.1967135
232.1388435
233.0880632
234.0444128
235.0079324
235.9786624
236.9566433
237.9419159
238.9345211
239.9344998
240.9418935
241.9567433
242.9790911
244.0089784
245.0464474
246.09154
247.1442986
248.2047658
249.2729842
250.3489966
251.4328462
252.5245762
253.6242301
254.7318515
255.8474843
256.9711724
258.1029602
259.2428921
260.3910128
261.5473671
262.712
263.8849569
265.0662833
266.2560248
267.4542274
268.6609371
269.8762005
271.100064
272.3325744
273.5737787
274.8237243
276.0824585
277.3500292
278.6264842
279.9118718
281.2062403
282.5096384
283.822115
285.1437192
286.4745004
287.8145083
289.1637928
290.5224039
291.8903921
293.267808
294.6547025
296.0511267
297.4571321
298.8727704
300.2980936
301.7331538
303.1780035
304.6326956
306.0972829
307.5718191
)
;
    }
    frontAndBack
    {
        type            empty;
    }
}


// ************************************************************************* //
